<?xml version="1.0" encoding="UTF-8"?>

<!-- generated on 07/11/18 18:31:32 by SUMO Version 0.32.0
<?xml version="1.0" encoding="UTF-8"?>

<configuration xmlns:xsi="http://www.w3.org/2001/XMLSchema-instance" xsi:noNamespaceSchemaLocation="http://sumo.dlr.de/xsd/sumoConfiguration.xsd">

    <input>
        <net-file value="C:\Users\Karol\src\sumo_maps\new_york_brighton.net.xml"/>
        <route-files value="C:\Users\Karol\src\sumo_maps\new_york_brighton.rou.xml"/>
        <additional-files value="C:\Users\Karol\src\sumo_maps\output_config.xml"/>
    </input>

    <output>
        <fcd-output value="fcd_output.xml"/>
    </output>

    <time>
        <begin value="0"/>
        <end value="800"/>
    </time>

    <processing>
        <time-to-teleport value="-1"/>
    </processing>

</configuration>
-->

<fcd-export xmlns:xsi="http://www.w3.org/2001/XMLSchema-instance" xsi:noNamespaceSchemaLocation="http://sumo.dlr.de/xsd/fcd_file.xsd">
    <timestep time="0.00">
        <vehicle id="0" x="275.50" y="338.43" angle="71.98" type="DEFAULT_VEHTYPE" speed="0.00" pos="5.10" lane="-10249819#4_0" slope="0.00"/>
        <vehicle id="1" x="918.48" y="32.12" angle="338.87" type="DEFAULT_VEHTYPE" speed="0.00" pos="5.10" lane="-41165756#6_0" slope="0.00"/>
    </timestep>
    <timestep time="1.00">
        <vehicle id="0" x="276.87" y="338.87" angle="71.98" type="DEFAULT_VEHTYPE" speed="1.44" pos="6.54" lane="-10249819#4_0" slope="0.00"/>
        <vehicle id="1" x="917.88" y="33.68" angle="338.87" type="DEFAULT_VEHTYPE" speed="1.67" pos="6.77" lane="-41165756#6_0" slope="0.00"/>
        <vehicle id="11" x="938.39" y="554.76" angle="251.66" type="DEFAULT_VEHTYPE" speed="0.00" pos="5.10" lane="10249819#3_0" slope="0.00"/>
        <vehicle id="13" x="1264.31" y="836.77" angle="162.08" type="DEFAULT_VEHTYPE" speed="0.00" pos="5.10" lane="10249385#2_0" slope="0.00"/>
        <vehicle id="14" x="976.28" y="460.09" angle="161.97" type="DEFAULT_VEHTYPE" speed="0.00" pos="5.10" lane="10249490#5_0" slope="0.00"/>
        <vehicle id="17" x="1292.05" y="750.42" angle="163.04" type="DEFAULT_VEHTYPE" speed="0.00" pos="5.10" lane="10249385#3_0" slope="0.00"/>
        <vehicle id="18" x="685.24" y="1371.85" angle="161.54" type="DEFAULT_VEHTYPE" speed="0.00" pos="5.10" lane="10249490#1_0" slope="0.00"/>
        <vehicle id="19" x="22.93" y="353.66" angle="72.53" type="DEFAULT_VEHTYPE" speed="0.00" pos="5.10" lane="-10249877#4_0" slope="0.00"/>
        <vehicle id="2" x="1012.53" y="385.86" angle="72.36" type="DEFAULT_VEHTYPE" speed="0.00" pos="5.10" lane="10249798#3_0" slope="0.00"/>
        <vehicle id="3" x="1078.03" y="777.41" angle="162.76" type="DEFAULT_VEHTYPE" speed="0.00" pos="5.10" lane="11307594#1_0" slope="0.00"/>
        <vehicle id="4" x="1261.21" y="856.56" angle="341.12" type="DEFAULT_VEHTYPE" speed="0.00" pos="5.10" lane="-10249385#1_0" slope="0.00"/>
        <vehicle id="5" x="1093.98" y="698.22" angle="251.99" type="DEFAULT_VEHTYPE" speed="0.00" pos="5.10" lane="10249877#2_0" slope="0.00"/>
        <vehicle id="6" x="682.00" y="744.60" angle="162.22" type="DEFAULT_VEHTYPE" speed="0.00" pos="5.10" lane="41165756#1_0" slope="0.00"/>
        <vehicle id="7" x="653.31" y="836.08" angle="162.63" type="DEFAULT_VEHTYPE" speed="0.00" pos="5.10" lane="41165756#0_0" slope="0.00"/>
        <vehicle id="8" x="718.36" y="668.96" angle="72.39" type="DEFAULT_VEHTYPE" speed="0.00" pos="5.10" lane="-10249903#2_0" slope="0.00"/>
        <vehicle id="9" x="1345.10" y="577.86" angle="162.81" type="DEFAULT_VEHTYPE" speed="0.00" pos="5.10" lane="10249385#5_0" slope="0.00"/>
    </timestep>
    <timestep time="2.00">
        <vehicle id="0" x="280.66" y="340.11" angle="71.98" type="DEFAULT_VEHTYPE" speed="3.98" pos="10.52" lane="-10249819#4_0" slope="0.00"/>
        <vehicle id="1" x="916.57" y="37.07" angle="338.87" type="DEFAULT_VEHTYPE" speed="3.63" pos="10.41" lane="-41165756#6_0" slope="0.00"/>
        <vehicle id="11" x="936.48" y="554.12" angle="251.66" type="DEFAULT_VEHTYPE" speed="2.01" pos="7.11" lane="10249819#3_0" slope="0.00"/>
        <vehicle id="13" x="1265.01" y="834.60" angle="162.08" type="DEFAULT_VEHTYPE" speed="2.28" pos="7.38" lane="10249385#2_0" slope="0.00"/>
        <vehicle id="14" x="976.81" y="458.45" angle="161.97" type="DEFAULT_VEHTYPE" speed="1.73" pos="6.83" lane="10249490#5_0" slope="0.00"/>
        <vehicle id="17" x="1292.60" y="748.61" angle="163.04" type="DEFAULT_VEHTYPE" speed="1.89" pos="6.99" lane="10249385#3_0" slope="0.00"/>
        <vehicle id="18" x="686.07" y="1369.39" angle="161.54" type="DEFAULT_VEHTYPE" speed="2.59" pos="7.69" lane="10249490#1_0" slope="0.00"/>
        <vehicle id="19" x="25.36" y="354.42" angle="72.53" type="DEFAULT_VEHTYPE" speed="2.54" pos="7.64" lane="-10249877#4_0" slope="0.00"/>
        <vehicle id="2" x="1014.43" y="386.46" angle="72.36" type="DEFAULT_VEHTYPE" speed="1.99" pos="7.09" lane="10249798#3_0" slope="0.00"/>
        <vehicle id="20" x="383.76" y="187.47" angle="75.58" type="DEFAULT_VEHTYPE" speed="0.00" pos="5.10" lane="10249798#1_0" slope="0.00"/>
        <vehicle id="21" x="1289.28" y="770.26" angle="342.08" type="DEFAULT_VEHTYPE" speed="0.00" pos="5.10" lane="-10249385#2_0" slope="0.00"/>
        <vehicle id="22" x="1158.09" y="537.13" angle="341.67" type="DEFAULT_VEHTYPE" speed="0.00" pos="5.10" lane="-11307594#3_0" slope="0.00"/>
        <vehicle id="23" x="1066.74" y="785.80" angle="251.59" type="DEFAULT_VEHTYPE" speed="0.00" pos="5.10" lane="10249903#1_0" slope="0.00"/>
        <vehicle id="24" x="1575.79" y="877.04" angle="216.71" type="DEFAULT_VEHTYPE" speed="0.00" pos="5.10" lane="10249877#0_0" slope="0.00"/>
        <vehicle id="25" x="763.96" y="505.65" angle="341.39" type="DEFAULT_VEHTYPE" speed="0.00" pos="5.10" lane="-41165756#3_0" slope="0.00"/>
        <vehicle id="26" x="949.74" y="546.40" angle="162.14" type="DEFAULT_VEHTYPE" speed="0.00" pos="5.10" lane="10249490#4_0" slope="0.00"/>
        <vehicle id="28" x="1660.52" y="784.47" angle="252.08" type="DEFAULT_VEHTYPE" speed="0.00" pos="5.10" lane="10249819#0_0" slope="0.00"/>
        <vehicle id="3" x="1078.70" y="775.25" angle="162.76" type="DEFAULT_VEHTYPE" speed="2.26" pos="7.36" lane="11307594#1_0" slope="0.00"/>
        <vehicle id="4" x="1260.62" y="858.29" angle="341.12" type="DEFAULT_VEHTYPE" speed="1.83" pos="6.93" lane="-10249385#1_0" slope="0.00"/>
        <vehicle id="5" x="1092.21" y="697.65" angle="251.99" type="DEFAULT_VEHTYPE" speed="1.86" pos="6.96" lane="10249877#2_0" slope="0.00"/>
        <vehicle id="6" x="682.44" y="743.21" angle="162.22" type="DEFAULT_VEHTYPE" speed="1.46" pos="6.56" lane="41165756#1_0" slope="0.00"/>
        <vehicle id="7" x="654.07" y="833.68" angle="162.63" type="DEFAULT_VEHTYPE" speed="2.52" pos="7.62" lane="41165756#0_0" slope="0.00"/>
        <vehicle id="8" x="719.92" y="669.46" angle="72.37" type="DEFAULT_VEHTYPE" speed="1.63" pos="6.73" lane="-10249903#2_0" slope="0.00"/>
        <vehicle id="9" x="1345.58" y="576.30" angle="162.81" type="DEFAULT_VEHTYPE" speed="1.63" pos="6.73" lane="10249385#5_0" slope="0.00"/>
    </timestep>
    <timestep time="3.00">
        <vehicle id="0" x="286.52" y="342.01" angle="71.98" type="DEFAULT_VEHTYPE" speed="6.16" pos="16.69" lane="-10249819#4_0" slope="0.00"/>
        <vehicle id="1" x="914.64" y="42.06" angle="338.87" type="DEFAULT_VEHTYPE" speed="5.35" pos="15.75" lane="-41165756#6_0" slope="0.00"/>
        <vehicle id="11" x="932.39" y="552.77" angle="251.66" type="DEFAULT_VEHTYPE" speed="4.30" pos="11.42" lane="10249819#3_0" slope="0.00"/>
        <vehicle id="13" x="1266.26" y="830.74" angle="162.08" type="DEFAULT_VEHTYPE" speed="4.05" pos="11.43" lane="10249385#2_0" slope="0.00"/>
        <vehicle id="14" x="977.99" y="454.83" angle="161.97" type="DEFAULT_VEHTYPE" speed="3.81" pos="10.63" lane="10249490#5_0" slope="0.00"/>
        <vehicle id="17" x="1293.55" y="745.49" angle="163.04" type="DEFAULT_VEHTYPE" speed="3.27" pos="10.26" lane="10249385#3_0" slope="0.00"/>
        <vehicle id="18" x="687.34" y="1365.56" angle="161.54" type="DEFAULT_VEHTYPE" speed="4.04" pos="11.73" lane="10249490#1_0" slope="0.00"/>
        <vehicle id="19" x="29.63" y="355.77" angle="72.53" type="DEFAULT_VEHTYPE" speed="4.48" pos="12.12" lane="-10249877#4_0" slope="0.00"/>
        <vehicle id="2" x="1018.13" y="387.64" angle="72.36" type="DEFAULT_VEHTYPE" speed="3.89" pos="10.98" lane="10249798#3_0" slope="0.00"/>
        <vehicle id="20" x="386.11" y="188.08" angle="75.58" type="DEFAULT_VEHTYPE" speed="2.43" pos="7.53" lane="10249798#1_0" slope="0.00"/>
        <vehicle id="21" x="1288.86" y="771.55" angle="342.08" type="DEFAULT_VEHTYPE" speed="1.36" pos="6.46" lane="-10249385#2_0" slope="0.00"/>
        <vehicle id="22" x="1157.28" y="539.56" angle="341.67" type="DEFAULT_VEHTYPE" speed="2.56" pos="7.66" lane="-11307594#3_0" slope="0.00"/>
        <vehicle id="23" x="1065.46" y="785.37" angle="251.59" type="DEFAULT_VEHTYPE" speed="1.35" pos="6.45" lane="10249903#1_0" slope="0.00"/>
        <vehicle id="24" x="1574.56" y="875.39" angle="216.71" type="DEFAULT_VEHTYPE" speed="2.07" pos="7.17" lane="10249877#0_0" slope="0.00"/>
        <vehicle id="25" x="763.42" y="507.27" angle="341.39" type="DEFAULT_VEHTYPE" speed="1.71" pos="6.81" lane="-41165756#3_0" slope="0.00"/>
        <vehicle id="26" x="950.41" y="544.33" angle="162.14" type="DEFAULT_VEHTYPE" speed="2.17" pos="7.27" lane="10249490#4_0" slope="0.00"/>
        <vehicle id="28" x="1658.20" y="783.72" angle="252.08" type="DEFAULT_VEHTYPE" speed="2.44" pos="7.54" lane="10249819#0_0" slope="0.00"/>
        <vehicle id="3" x="1080.02" y="770.99" angle="162.76" type="DEFAULT_VEHTYPE" speed="4.46" pos="11.82" lane="11307594#1_0" slope="0.00"/>
        <vehicle id="30" x="1185.34" y="452.87" angle="342.13" type="DEFAULT_VEHTYPE" speed="0.00" pos="5.10" lane="-11307594#4_0" slope="0.00"/>
        <vehicle id="31" x="964.91" y="468.59" angle="252.25" type="DEFAULT_VEHTYPE" speed="0.00" pos="5.10" lane="10249805#3_0" slope="0.00"/>
        <vehicle id="34" x="766.94" y="485.84" angle="162.57" type="DEFAULT_VEHTYPE" speed="0.00" pos="5.10" lane="41165756#4_0" slope="0.00"/>
        <vehicle id="35" x="829.08" y="327.33" angle="72.30" type="DEFAULT_VEHTYPE" speed="0.00" pos="5.10" lane="10249798#2_0" slope="0.00"/>
        <vehicle id="36" x="1342.40" y="597.72" angle="342.80" type="DEFAULT_VEHTYPE" speed="0.00" pos="5.10" lane="-10249385#4_0" slope="0.00"/>
        <vehicle id="37" x="918.48" y="32.12" angle="338.87" type="DEFAULT_VEHTYPE" speed="0.00" pos="5.10" lane="-41165756#6_0" slope="0.00"/>
        <vehicle id="38" x="1318.60" y="663.48" angle="162.80" type="DEFAULT_VEHTYPE" speed="0.00" pos="5.10" lane="10249385#4_0" slope="0.00"/>
        <vehicle id="39" x="973.73" y="480.05" angle="344.63" type="DEFAULT_VEHTYPE" speed="0.00" pos="5.10" lane="-10249490#4_0" slope="0.00"/>
        <vehicle id="4" x="1259.20" y="862.43" angle="341.12" type="DEFAULT_VEHTYPE" speed="4.37" pos="11.31" lane="-10249385#1_0" slope="0.00"/>
        <vehicle id="5" x="1088.00" y="696.28" angle="251.99" type="DEFAULT_VEHTYPE" speed="4.42" pos="11.39" lane="10249877#2_0" slope="0.00"/>
        <vehicle id="6" x="683.62" y="739.54" angle="162.22" type="DEFAULT_VEHTYPE" speed="3.85" pos="10.42" lane="41165756#1_0" slope="0.00"/>
        <vehicle id="7" x="655.30" y="829.74" angle="162.63" type="DEFAULT_VEHTYPE" speed="4.13" pos="11.75" lane="41165756#0_0" slope="0.00"/>
        <vehicle id="8" x="723.57" y="670.62" angle="72.35" type="DEFAULT_VEHTYPE" speed="3.83" pos="10.57" lane="-10249903#2_0" slope="0.00"/>
        <vehicle id="9" x="1346.51" y="573.28" angle="162.81" type="DEFAULT_VEHTYPE" speed="3.16" pos="9.89" lane="10249385#5_0" slope="0.00"/>
    </timestep>
    <timestep time="4.00">
        <vehicle id="0" x="294.53" y="344.62" angle="71.98" type="DEFAULT_VEHTYPE" speed="8.42" pos="25.11" lane="-10249819#4_0" slope="0.00"/>
        <vehicle id="1" x="911.88" y="49.20" angle="338.87" type="DEFAULT_VEHTYPE" speed="7.66" pos="23.41" lane="-41165756#6_0" slope="0.00"/>
        <vehicle id="10" x="1078.03" y="777.41" angle="162.76" type="DEFAULT_VEHTYPE" speed="0.00" pos="5.10" lane="11307594#1_0" slope="0.00"/>
        <vehicle id="11" x="927.02" y="550.99" angle="251.66" type="DEFAULT_VEHTYPE" speed="5.66" pos="17.07" lane="10249819#3_0" slope="0.00"/>
        <vehicle id="12" x="938.39" y="554.76" angle="251.66" type="DEFAULT_VEHTYPE" speed="0.00" pos="5.10" lane="10249819#3_0" slope="0.00"/>
        <vehicle id="13" x="1268.27" y="824.52" angle="162.08" type="DEFAULT_VEHTYPE" speed="6.54" pos="17.97" lane="10249385#2_0" slope="0.00"/>
        <vehicle id="14" x="979.70" y="449.59" angle="161.97" type="DEFAULT_VEHTYPE" speed="5.51" pos="16.15" lane="10249490#5_0" slope="0.00"/>
        <vehicle id="16" x="682.00" y="744.60" angle="162.22" type="DEFAULT_VEHTYPE" speed="0.00" pos="5.10" lane="41165756#1_0" slope="0.00"/>
        <vehicle id="17" x="1295.01" y="740.70" angle="163.04" type="DEFAULT_VEHTYPE" speed="5.00" pos="15.26" lane="10249385#3_0" slope="0.00"/>
        <vehicle id="18" x="689.20" y="1360.00" angle="161.54" type="DEFAULT_VEHTYPE" speed="5.86" pos="17.59" lane="10249490#1_0" slope="0.00"/>
        <vehicle id="19" x="36.08" y="357.80" angle="72.53" type="DEFAULT_VEHTYPE" speed="6.76" pos="18.88" lane="-10249877#4_0" slope="0.00"/>
        <vehicle id="2" x="1023.16" y="389.23" angle="72.36" type="DEFAULT_VEHTYPE" speed="5.27" pos="16.25" lane="10249798#3_0" slope="0.00"/>
        <vehicle id="20" x="390.95" y="189.32" angle="75.58" type="DEFAULT_VEHTYPE" speed="5.00" pos="12.53" lane="10249798#1_0" slope="0.00"/>
        <vehicle id="21" x="1288.03" y="774.14" angle="342.08" type="DEFAULT_VEHTYPE" speed="2.72" pos="9.17" lane="-10249385#2_0" slope="0.00"/>
        <vehicle id="22" x="1155.73" y="544.24" angle="341.67" type="DEFAULT_VEHTYPE" speed="4.92" pos="12.58" lane="-11307594#3_0" slope="0.00"/>
        <vehicle id="23" x="1062.86" y="784.51" angle="251.59" type="DEFAULT_VEHTYPE" speed="2.74" pos="9.19" lane="10249903#1_0" slope="0.00"/>
        <vehicle id="24" x="1572.19" y="872.22" angle="216.71" type="DEFAULT_VEHTYPE" speed="3.95" pos="11.12" lane="10249877#0_0" slope="0.00"/>
        <vehicle id="25" x="762.31" y="510.57" angle="341.39" type="DEFAULT_VEHTYPE" speed="3.48" pos="10.28" lane="-41165756#3_0" slope="0.00"/>
        <vehicle id="26" x="951.81" y="539.98" angle="162.14" type="DEFAULT_VEHTYPE" speed="4.57" pos="11.84" lane="10249490#4_0" slope="0.00"/>
        <vehicle id="27" x="976.28" y="460.09" angle="161.97" type="DEFAULT_VEHTYPE" speed="0.00" pos="5.10" lane="10249490#5_0" slope="0.00"/>
        <vehicle id="28" x="1653.75" y="782.28" angle="252.08" type="DEFAULT_VEHTYPE" speed="4.67" pos="12.21" lane="10249819#0_0" slope="0.00"/>
        <vehicle id="3" x="1081.93" y="764.86" angle="162.76" type="DEFAULT_VEHTYPE" speed="6.42" pos="18.24" lane="11307594#1_0" slope="0.00"/>
        <vehicle id="30" x="1184.93" y="454.12" angle="342.13" type="DEFAULT_VEHTYPE" speed="1.31" pos="6.41" lane="-11307594#4_0" slope="0.00"/>
        <vehicle id="31" x="962.54" y="467.83" angle="252.25" type="DEFAULT_VEHTYPE" speed="2.49" pos="7.59" lane="10249805#3_0" slope="0.00"/>
        <vehicle id="34" x="767.50" y="484.07" angle="162.57" type="DEFAULT_VEHTYPE" speed="1.86" pos="6.96" lane="41165756#4_0" slope="0.00"/>
        <vehicle id="35" x="831.14" y="327.99" angle="72.30" type="DEFAULT_VEHTYPE" speed="2.16" pos="7.26" lane="10249798#2_0" slope="0.00"/>
        <vehicle id="36" x="1341.66" y="600.12" angle="342.80" type="DEFAULT_VEHTYPE" speed="2.51" pos="7.61" lane="-10249385#4_0" slope="0.00"/>
        <vehicle id="37" x="917.62" y="34.34" angle="338.87" type="DEFAULT_VEHTYPE" speed="2.38" pos="7.48" lane="-41165756#6_0" slope="0.00"/>
        <vehicle id="38" x="1319.25" y="661.38" angle="162.80" type="DEFAULT_VEHTYPE" speed="2.19" pos="7.29" lane="10249385#4_0" slope="0.00"/>
        <vehicle id="39" x="973.10" y="482.33" angle="344.63" type="DEFAULT_VEHTYPE" speed="2.37" pos="7.47" lane="-10249490#4_0" slope="0.00"/>
        <vehicle id="4" x="1257.19" y="868.32" angle="341.12" type="DEFAULT_VEHTYPE" speed="6.23" pos="17.54" lane="-10249385#1_0" slope="0.00"/>
        <vehicle id="40" x="685.24" y="1371.85" angle="161.54" type="DEFAULT_VEHTYPE" speed="0.00" pos="5.10" lane="10249490#1_0" slope="0.00"/>
        <vehicle id="41" x="1086.53" y="788.78" angle="72.34" type="DEFAULT_VEHTYPE" speed="0.00" pos="5.10" lane="-10249903#0_0" slope="0.00"/>
        <vehicle id="42" x="1121.17" y="612.08" angle="252.64" type="DEFAULT_VEHTYPE" speed="0.00" pos="5.10" lane="10249819#2_0" slope="0.00"/>
        <vehicle id="43" x="1196.67" y="444.44" angle="72.10" type="DEFAULT_VEHTYPE" speed="0.00" pos="5.10" lane="10249798#4_0" slope="0.00"/>
        <vehicle id="44" x="1102.53" y="709.65" angle="342.75" type="DEFAULT_VEHTYPE" speed="0.00" pos="5.10" lane="-11307594#1_0" slope="0.00"/>
        <vehicle id="48" x="809.26" y="324.36" angle="251.66" type="DEFAULT_VEHTYPE" speed="0.00" pos="5.10" lane="-10249798#1_0" slope="0.00"/>
        <vehicle id="49" x="1105.27" y="689.80" angle="162.51" type="DEFAULT_VEHTYPE" speed="0.00" pos="5.10" lane="11307594#2_0" slope="0.00"/>
        <vehicle id="5" x="1081.70" y="694.23" angle="251.99" type="DEFAULT_VEHTYPE" speed="6.62" pos="18.01" lane="10249877#2_0" slope="0.00"/>
        <vehicle id="6" x="685.52" y="733.60" angle="162.22" type="DEFAULT_VEHTYPE" speed="6.24" pos="16.65" lane="41165756#1_0" slope="0.00"/>
        <vehicle id="7" x="657.08" y="824.04" angle="162.63" type="DEFAULT_VEHTYPE" speed="5.97" pos="17.72" lane="41165756#0_0" slope="0.00"/>
        <vehicle id="8" x="728.70" y="672.25" angle="72.35" type="DEFAULT_VEHTYPE" speed="5.38" pos="15.95" lane="-10249903#2_0" slope="0.00"/>
        <vehicle id="9" x="1347.94" y="568.67" angle="162.81" type="DEFAULT_VEHTYPE" speed="4.83" pos="14.72" lane="10249385#5_0" slope="0.00"/>
    </timestep>
    <timestep time="5.00">
        <vehicle id="0" x="304.75" y="347.95" angle="71.98" type="DEFAULT_VEHTYPE" speed="10.75" pos="35.86" lane="-10249819#4_0" slope="0.00"/>
        <vehicle id="1" x="908.27" y="58.55" angle="338.87" type="DEFAULT_VEHTYPE" speed="10.02" pos="33.43" lane="-41165756#6_0" slope="0.00"/>
        <vehicle id="10" x="1078.79" y="774.96" angle="162.76" type="DEFAULT_VEHTYPE" speed="2.57" pos="7.67" lane="11307594#1_0" slope="0.00"/>
        <vehicle id="11" x="919.91" y="548.63" angle="251.66" type="DEFAULT_VEHTYPE" speed="7.50" pos="24.57" lane="10249819#3_0" slope="0.00"/>
        <vehicle id="12" x="936.44" y="554.11" angle="251.66" type="DEFAULT_VEHTYPE" speed="2.06" pos="7.16" lane="10249819#3_0" slope="0.00"/>
        <vehicle id="13" x="1270.97" y="816.18" angle="162.08" type="DEFAULT_VEHTYPE" speed="8.76" pos="26.73" lane="10249385#2_0" slope="0.00"/>
        <vehicle id="14" x="982.05" y="442.36" angle="161.97" type="DEFAULT_VEHTYPE" speed="7.60" pos="23.75" lane="10249490#5_0" slope="0.00"/>
        <vehicle id="16" x="682.44" y="743.21" angle="162.22" type="DEFAULT_VEHTYPE" speed="1.46" pos="6.56" lane="41165756#1_0" slope="0.00"/>
        <vehicle id="17" x="1297.15" y="733.69" angle="163.04" type="DEFAULT_VEHTYPE" speed="7.33" pos="22.59" lane="10249385#3_0" slope="0.00"/>
        <vehicle id="18" x="691.70" y="1352.50" angle="161.54" type="DEFAULT_VEHTYPE" speed="7.91" pos="25.51" lane="10249490#1_0" slope="0.00"/>
        <vehicle id="19" x="44.12" y="360.33" angle="72.53" type="DEFAULT_VEHTYPE" speed="8.42" pos="27.31" lane="-10249877#4_0" slope="0.00"/>
        <vehicle id="2" x="1029.64" y="391.29" angle="72.36" type="DEFAULT_VEHTYPE" speed="6.80" pos="23.05" lane="10249798#3_0" slope="0.00"/>
        <vehicle id="20" x="397.41" y="190.98" angle="75.58" type="DEFAULT_VEHTYPE" speed="6.67" pos="19.20" lane="10249798#1_0" slope="0.00"/>
        <vehicle id="21" x="1286.64" y="778.42" angle="342.08" type="DEFAULT_VEHTYPE" speed="4.50" pos="13.67" lane="-10249385#2_0" slope="0.00"/>
        <vehicle id="22" x="1153.75" y="550.24" angle="341.67" type="DEFAULT_VEHTYPE" speed="6.32" pos="18.90" lane="-11307594#3_0" slope="0.00"/>
        <vehicle id="23" x="1058.51" y="783.06" angle="251.59" type="DEFAULT_VEHTYPE" speed="4.59" pos="13.78" lane="10249903#1_0" slope="0.00"/>
        <vehicle id="24" x="1568.95" y="867.87" angle="216.71" type="DEFAULT_VEHTYPE" speed="5.42" pos="16.54" lane="10249877#0_0" slope="0.00"/>
        <vehicle id="25" x="760.57" y="515.72" angle="341.39" type="DEFAULT_VEHTYPE" speed="5.43" pos="15.72" lane="-41165756#3_0" slope="0.00"/>
        <vehicle id="26" x="953.84" y="533.68" angle="162.14" type="DEFAULT_VEHTYPE" speed="6.62" pos="18.46" lane="10249490#4_0" slope="0.00"/>
        <vehicle id="27" x="976.88" y="458.25" angle="161.97" type="DEFAULT_VEHTYPE" speed="1.93" pos="7.03" lane="10249490#5_0" slope="0.00"/>
        <vehicle id="28" x="1647.39" y="780.23" angle="252.08" type="DEFAULT_VEHTYPE" speed="6.68" pos="18.89" lane="10249819#0_0" slope="0.00"/>
        <vehicle id="3" x="1084.23" y="757.45" angle="162.76" type="DEFAULT_VEHTYPE" speed="7.75" pos="26.00" lane="11307594#1_0" slope="0.00"/>
        <vehicle id="30" x="1183.90" y="457.33" angle="342.13" type="DEFAULT_VEHTYPE" speed="3.38" pos="9.79" lane="-11307594#4_0" slope="0.00"/>
        <vehicle id="31" x="957.82" y="466.32" angle="252.25" type="DEFAULT_VEHTYPE" speed="4.96" pos="12.54" lane="10249805#3_0" slope="0.00"/>
        <vehicle id="32" x="1660.52" y="784.47" angle="252.08" type="DEFAULT_VEHTYPE" speed="0.00" pos="5.10" lane="10249819#0_0" slope="0.00"/>
        <vehicle id="34" x="768.65" y="480.39" angle="162.57" type="DEFAULT_VEHTYPE" speed="3.86" pos="10.82" lane="41165756#4_0" slope="0.00"/>
        <vehicle id="35" x="834.80" y="329.16" angle="72.30" type="DEFAULT_VEHTYPE" speed="3.85" pos="11.11" lane="10249798#2_0" slope="0.00"/>
        <vehicle id="36" x="1340.52" y="603.80" angle="342.80" type="DEFAULT_VEHTYPE" speed="3.85" pos="11.46" lane="-10249385#4_0" slope="0.00"/>
        <vehicle id="37" x="915.85" y="38.93" angle="338.87" type="DEFAULT_VEHTYPE" speed="4.92" pos="12.40" lane="-41165756#6_0" slope="0.00"/>
        <vehicle id="38" x="1320.53" y="657.23" angle="162.80" type="DEFAULT_VEHTYPE" speed="4.35" pos="11.64" lane="10249385#4_0" slope="0.00"/>
        <vehicle id="39" x="971.89" y="486.75" angle="344.63" type="DEFAULT_VEHTYPE" speed="4.58" pos="12.05" lane="-10249490#4_0" slope="0.00"/>
        <vehicle id="4" x="1254.36" y="876.58" angle="341.12" type="DEFAULT_VEHTYPE" speed="8.73" pos="26.26" lane="-10249385#1_0" slope="0.00"/>
        <vehicle id="40" x="685.81" y="1370.14" angle="161.54" type="DEFAULT_VEHTYPE" speed="1.80" pos="6.90" lane="10249490#1_0" slope="0.00"/>
        <vehicle id="41" x="1088.04" y="789.26" angle="72.34" type="DEFAULT_VEHTYPE" speed="1.58" pos="6.68" lane="-10249903#0_0" slope="0.00"/>
        <vehicle id="42" x="1118.84" y="611.35" angle="252.64" type="DEFAULT_VEHTYPE" speed="2.44" pos="7.54" lane="10249819#2_0" slope="0.00"/>
        <vehicle id="43" x="1198.27" y="444.95" angle="72.10" type="DEFAULT_VEHTYPE" speed="1.67" pos="6.77" lane="10249798#4_0" slope="0.00"/>
        <vehicle id="44" x="1101.86" y="711.78" angle="342.75" type="DEFAULT_VEHTYPE" speed="2.23" pos="7.33" lane="-11307594#1_0" slope="0.00"/>
        <vehicle id="45" x="1289.28" y="770.26" angle="342.08" type="DEFAULT_VEHTYPE" speed="0.00" pos="5.10" lane="-10249385#2_0" slope="0.00"/>
        <vehicle id="48" x="807.61" y="323.81" angle="251.66" type="DEFAULT_VEHTYPE" speed="1.74" pos="6.84" lane="-10249798#1_0" slope="0.00"/>
        <vehicle id="49" x="1105.78" y="688.20" angle="162.51" type="DEFAULT_VEHTYPE" speed="1.67" pos="6.77" lane="11307594#2_0" slope="0.00"/>
        <vehicle id="5" x="1073.39" y="691.53" angle="251.99" type="DEFAULT_VEHTYPE" speed="8.75" pos="26.75" lane="10249877#2_0" slope="0.00"/>
        <vehicle id="50" x="1307.34" y="671.95" angle="252.15" type="DEFAULT_VEHTYPE" speed="0.00" pos="5.10" lane="10249819#1_0" slope="0.00"/>
        <vehicle id="52" x="958.21" y="557.67" angle="72.64" type="DEFAULT_VEHTYPE" speed="0.00" pos="5.10" lane="-10249819#2_0" slope="0.00"/>
        <vehicle id="54" x="56.70" y="172.54" angle="71.63" type="DEFAULT_VEHTYPE" speed="0.00" pos="5.10" lane="-10249805#4_0" slope="0.00"/>
        <vehicle id="55" x="1132.61" y="603.56" angle="161.68" type="DEFAULT_VEHTYPE" speed="0.00" pos="5.10" lane="11307594#3_0" slope="0.00"/>
        <vehicle id="56" x="746.26" y="584.03" angle="72.68" type="DEFAULT_VEHTYPE" speed="0.00" pos="5.10" lane="-10249877#3_0" slope="0.00"/>
        <vehicle id="58" x="817.79" y="335.80" angle="342.38" type="DEFAULT_VEHTYPE" speed="0.00" pos="5.10" lane="-41165756#5_0" slope="0.00"/>
        <vehicle id="59" x="5.36" y="444.23" angle="72.79" type="DEFAULT_VEHTYPE" speed="0.00" pos="5.10" lane="-10249903#3_0" slope="0.00"/>
        <vehicle id="6" x="688.18" y="725.32" angle="162.22" type="DEFAULT_VEHTYPE" speed="8.70" pos="25.35" lane="41165756#1_0" slope="0.00"/>
        <vehicle id="7" x="659.52" y="816.23" angle="162.63" type="DEFAULT_VEHTYPE" speed="8.18" pos="25.90" lane="41165756#0_0" slope="0.00"/>
        <vehicle id="8" x="735.87" y="674.53" angle="72.35" type="DEFAULT_VEHTYPE" speed="7.52" pos="23.47" lane="-10249903#2_0" slope="0.00"/>
        <vehicle id="9" x="1349.88" y="562.41" angle="162.81" type="DEFAULT_VEHTYPE" speed="6.55" pos="21.27" lane="10249385#5_0" slope="0.00"/>
    </timestep>
    <timestep time="6.00">
        <vehicle id="0" x="317.27" y="352.02" angle="71.98" type="DEFAULT_VEHTYPE" speed="13.17" pos="49.03" lane="-10249819#4_0" slope="0.00"/>
        <vehicle id="1" x="904.32" y="69.31" angle="341.08" type="DEFAULT_VEHTYPE" speed="11.47" pos="44.91" lane="-41165756#6_0" slope="0.00"/>
        <vehicle id="10" x="1080.10" y="770.75" angle="162.76" type="DEFAULT_VEHTYPE" speed="4.40" pos="12.07" lane="11307594#1_0" slope="0.00"/>
        <vehicle id="11" x="911.05" y="545.69" angle="251.66" type="DEFAULT_VEHTYPE" speed="9.33" pos="33.90" lane="10249819#3_0" slope="0.00"/>
        <vehicle id="12" x="932.36" y="552.76" angle="251.66" type="DEFAULT_VEHTYPE" speed="4.30" pos="11.45" lane="10249819#3_0" slope="0.00"/>
        <vehicle id="13" x="1274.19" y="806.21" angle="162.08" type="DEFAULT_VEHTYPE" speed="10.48" pos="37.22" lane="10249385#2_0" slope="0.00"/>
        <vehicle id="14" x="985.07" y="433.08" angle="161.97" type="DEFAULT_VEHTYPE" speed="9.76" pos="33.50" lane="10249490#5_0" slope="0.00"/>
        <vehicle id="16" x="683.34" y="740.40" angle="162.22" type="DEFAULT_VEHTYPE" speed="2.95" pos="9.51" lane="41165756#1_0" slope="0.00"/>
        <vehicle id="17" x="1299.67" y="725.42" angle="163.04" type="DEFAULT_VEHTYPE" speed="8.65" pos="31.24" lane="10249385#3_0" slope="0.00"/>
        <vehicle id="18" x="694.97" y="1342.71" angle="161.54" type="DEFAULT_VEHTYPE" speed="10.31" pos="35.82" lane="10249490#1_0" slope="0.00"/>
        <vehicle id="19" x="54.58" y="363.62" angle="72.53" type="DEFAULT_VEHTYPE" speed="10.97" pos="38.28" lane="-10249877#4_0" slope="0.00"/>
        <vehicle id="2" x="1038.06" y="393.97" angle="72.36" type="DEFAULT_VEHTYPE" speed="8.84" pos="31.89" lane="10249798#3_0" slope="0.00"/>
        <vehicle id="20" x="405.16" y="192.97" angle="75.58" type="DEFAULT_VEHTYPE" speed="8.00" pos="27.20" lane="10249798#1_0" slope="0.00"/>
        <vehicle id="21" x="1284.71" y="784.39" angle="342.08" type="DEFAULT_VEHTYPE" speed="6.27" pos="19.94" lane="-10249385#2_0" slope="0.00"/>
        <vehicle id="22" x="1151.33" y="557.54" angle="341.67" type="DEFAULT_VEHTYPE" speed="7.69" pos="26.60" lane="-11307594#3_0" slope="0.00"/>
        <vehicle id="23" x="1051.89" y="780.86" angle="251.59" type="DEFAULT_VEHTYPE" speed="6.98" pos="20.76" lane="10249903#1_0" slope="0.00"/>
        <vehicle id="24" x="1564.70" y="862.51" angle="219.07" type="DEFAULT_VEHTYPE" speed="6.84" pos="23.38" lane="10249877#0_0" slope="0.00"/>
        <vehicle id="25" x="758.24" y="522.66" angle="341.39" type="DEFAULT_VEHTYPE" speed="7.32" pos="23.04" lane="-41165756#3_0" slope="0.00"/>
        <vehicle id="26" x="956.66" y="524.92" angle="162.14" type="DEFAULT_VEHTYPE" speed="9.20" pos="27.66" lane="10249490#4_0" slope="0.00"/>
        <vehicle id="27" x="978.01" y="454.76" angle="161.97" type="DEFAULT_VEHTYPE" speed="3.67" pos="10.70" lane="10249490#5_0" slope="0.00"/>
        <vehicle id="28" x="1639.66" y="777.73" angle="252.08" type="DEFAULT_VEHTYPE" speed="8.13" pos="27.02" lane="10249819#0_0" slope="0.00"/>
        <vehicle id="3" x="1087.03" y="748.41" angle="162.76" type="DEFAULT_VEHTYPE" speed="9.47" pos="35.47" lane="11307594#1_0" slope="0.00"/>
        <vehicle id="30" x="1182.25" y="462.44" angle="342.13" type="DEFAULT_VEHTYPE" speed="5.36" pos="15.15" lane="-11307594#4_0" slope="0.00"/>
        <vehicle id="31" x="951.44" y="464.27" angle="252.25" type="DEFAULT_VEHTYPE" speed="6.70" pos="19.24" lane="10249805#3_0" slope="0.00"/>
        <vehicle id="32" x="1658.64" y="783.86" angle="252.08" type="DEFAULT_VEHTYPE" speed="1.97" pos="7.07" lane="10249819#0_0" slope="0.00"/>
        <vehicle id="34" x="770.23" y="475.37" angle="162.57" type="DEFAULT_VEHTYPE" speed="5.26" pos="16.08" lane="41165756#4_0" slope="0.00"/>
        <vehicle id="35" x="840.95" y="331.12" angle="72.30" type="DEFAULT_VEHTYPE" speed="6.45" pos="17.56" lane="10249798#2_0" slope="0.00"/>
        <vehicle id="36" x="1338.75" y="609.53" angle="342.80" type="DEFAULT_VEHTYPE" speed="6.00" pos="17.46" lane="-10249385#4_0" slope="0.00"/>
        <vehicle id="37" x="913.31" y="45.49" angle="338.87" type="DEFAULT_VEHTYPE" speed="7.04" pos="19.44" lane="-41165756#6_0" slope="0.00"/>