<?xml version="1.0" encoding="UTF-8"?>

<!-- generated on 08/04/18 14:29:59 by SUMO Version 0.32.0
<?xml version="1.0" encoding="UTF-8"?>

<configuration xmlns:xsi="http://www.w3.org/2001/XMLSchema-instance" xsi:noNamespaceSchemaLocation="http://sumo.dlr.de/xsd/sumoConfiguration.xsd">

    <input>
        <net-file value="C:\Users\Karol\PycharmProjects\SumoFiles\sumo_maps\new_york_brighton.net.xml"/>
        <route-files value="C:\Users\Karol\PycharmProjects\SumoFiles\sumo_maps\new_york_brighton.rou.xml"/>
        <additional-files value="C:\Users\Karol\PycharmProjects\SumoFiles\sumo_maps\output_config.xml"/>
    </input>

    <output>
        <fcd-output value="fcd_output.xml"/>
    </output>

    <time>
        <begin value="0"/>
        <end value="800"/>
    </time>

    <processing>
        <time-to-teleport value="-1"/>
    </processing>

</configuration>
-->

<fcd-export xmlns:xsi="http://www.w3.org/2001/XMLSchema-instance" xsi:noNamespaceSchemaLocation="http://sumo.dlr.de/xsd/fcd_file.xsd">
    <timestep time="0.00">
        <vehicle id="0" x="1509.72" y="65.87" angle="343.13" type="DEFAULT_VEHTYPE" speed="0.00" pos="5.10" lane="-10249385#6_0" slope="0.00"/>
        <vehicle id="1" x="1196.67" y="444.44" angle="72.10" type="DEFAULT_VEHTYPE" speed="0.00" pos="5.10" lane="10249798#4_0" slope="0.00"/>
    </timestep>
    <timestep time="1.00">
        <vehicle id="0" x="1509.30" y="67.25" angle="343.13" type="DEFAULT_VEHTYPE" speed="1.44" pos="6.54" lane="-10249385#6_0" slope="0.00"/>
        <vehicle id="1" x="1198.27" y="444.95" angle="72.10" type="DEFAULT_VEHTYPE" speed="1.67" pos="6.77" lane="10249798#4_0" slope="0.00"/>
        <vehicle id="10" x="1176.89" y="441.56" angle="252.36" type="DEFAULT_VEHTYPE" speed="0.00" pos="5.10" lane="-10249798#3_0" slope="0.00"/>
        <vehicle id="13" x="1129.68" y="623.36" angle="342.50" type="DEFAULT_VEHTYPE" speed="0.00" pos="5.10" lane="-11307594#2_0" slope="0.00"/>
        <vehicle id="15" x="775.41" y="497.25" angle="71.66" type="DEFAULT_VEHTYPE" speed="0.00" pos="5.10" lane="-10249819#3_0" slope="0.00"/>
        <vehicle id="16" x="1893.39" y="677.17" angle="250.94" type="DEFAULT_VEHTYPE" speed="0.00" pos="5.10" lane="-10249798#5_0" slope="0.00"/>
        <vehicle id="17" x="1185.33" y="452.87" angle="342.13" type="DEFAULT_VEHTYPE" speed="0.00" pos="5.10" lane="-11307594#4_0" slope="0.00"/>
        <vehicle id="18" x="973.73" y="480.05" angle="344.62" type="DEFAULT_VEHTYPE" speed="0.00" pos="5.10" lane="-10249490#4_0" slope="0.00"/>
        <vehicle id="19" x="763.96" y="505.66" angle="341.39" type="DEFAULT_VEHTYPE" speed="0.00" pos="5.10" lane="-41165756#3_0" slope="0.00"/>
        <vehicle id="2" x="383.76" y="187.47" angle="75.58" type="DEFAULT_VEHTYPE" speed="0.00" pos="5.10" lane="10249798#1_0" slope="0.00"/>
        <vehicle id="3" x="376.03" y="185.29" angle="71.86" type="DEFAULT_VEHTYPE" speed="0.00" pos="5.10" lane="10249798#0_0" slope="0.00"/>
        <vehicle id="4" x="1318.60" y="663.48" angle="162.80" type="DEFAULT_VEHTYPE" speed="0.00" pos="5.10" lane="10249385#4_0" slope="0.00"/>
        <vehicle id="5" x="1158.09" y="537.13" angle="341.67" type="DEFAULT_VEHTYPE" speed="0.00" pos="5.10" lane="-11307594#3_0" slope="0.00"/>
        <vehicle id="6" x="976.28" y="460.09" angle="161.97" type="DEFAULT_VEHTYPE" speed="0.00" pos="5.10" lane="10249490#5_0" slope="0.00"/>
        <vehicle id="7" x="1188.26" y="433.10" angle="162.03" type="DEFAULT_VEHTYPE" speed="0.00" pos="5.10" lane="11307594#5_0" slope="0.00"/>
        <vehicle id="8" x="923.21" y="630.63" angle="162.56" type="DEFAULT_VEHTYPE" speed="0.00" pos="5.10" lane="10249490#3_0" slope="0.00"/>
        <vehicle id="9" x="707.00" y="677.43" angle="342.22" type="DEFAULT_VEHTYPE" speed="0.00" pos="5.10" lane="-41165756#1_0" slope="0.00"/>
    </timestep>
    <timestep time="2.00">
        <vehicle id="0" x="1508.15" y="71.06" angle="343.13" type="DEFAULT_VEHTYPE" speed="3.98" pos="10.52" lane="-10249385#6_0" slope="0.00"/>
        <vehicle id="1" x="1201.72" y="446.07" angle="72.10" type="DEFAULT_VEHTYPE" speed="3.63" pos="10.41" lane="10249798#4_0" slope="0.00"/>
        <vehicle id="10" x="1174.47" y="440.79" angle="252.36" type="DEFAULT_VEHTYPE" speed="2.54" pos="7.64" lane="-10249798#3_0" slope="0.00"/>
        <vehicle id="13" x="1129.11" y="625.17" angle="342.50" type="DEFAULT_VEHTYPE" speed="1.89" pos="6.99" lane="-11307594#2_0" slope="0.00"/>
        <vehicle id="15" x="777.57" y="497.97" angle="71.66" type="DEFAULT_VEHTYPE" speed="2.28" pos="7.38" lane="-10249819#3_0" slope="0.00"/>
        <vehicle id="16" x="1891.85" y="676.64" angle="250.94" type="DEFAULT_VEHTYPE" speed="1.63" pos="6.73" lane="-10249798#5_0" slope="0.00"/>
        <vehicle id="17" x="1184.54" y="455.34" angle="342.13" type="DEFAULT_VEHTYPE" speed="2.59" pos="7.69" lane="-11307594#4_0" slope="0.00"/>
        <vehicle id="18" x="973.24" y="481.81" angle="344.62" type="DEFAULT_VEHTYPE" speed="1.83" pos="6.93" lane="-10249490#4_0" slope="0.00"/>
        <vehicle id="19" x="763.33" y="507.55" angle="341.39" type="DEFAULT_VEHTYPE" speed="1.99" pos="7.09" lane="-41165756#3_0" slope="0.00"/>
        <vehicle id="2" x="385.18" y="187.83" angle="75.58" type="DEFAULT_VEHTYPE" speed="1.46" pos="6.56" lane="10249798#1_0" slope="0.00"/>
        <vehicle id="20" x="1342.40" y="597.72" angle="342.80" type="DEFAULT_VEHTYPE" speed="0.00" pos="5.10" lane="-10249385#4_0" slope="0.00"/>
        <vehicle id="21" x="946.91" y="566.19" angle="342.56" type="DEFAULT_VEHTYPE" speed="0.00" pos="5.10" lane="-10249490#3_0" slope="0.00"/>
        <vehicle id="24" x="1263.86" y="838.19" angle="162.09" type="DEFAULT_VEHTYPE" speed="0.00" pos="5.10" lane="10249385#2_0" slope="0.00"/>
        <vehicle id="25" x="718.36" y="668.96" angle="72.29" type="DEFAULT_VEHTYPE" speed="0.00" pos="5.10" lane="-10249903#2_0" slope="0.00"/>
        <vehicle id="27" x="1280.81" y="758.89" angle="252.02" type="DEFAULT_VEHTYPE" speed="0.00" pos="5.10" lane="10249877#1_0" slope="0.00"/>
        <vehicle id="28" x="964.91" y="468.59" angle="252.25" type="DEFAULT_VEHTYPE" speed="0.00" pos="5.10" lane="10249805#3_0" slope="0.00"/>
        <vehicle id="29" x="1169.50" y="528.71" angle="71.78" type="DEFAULT_VEHTYPE" speed="0.00" pos="5.10" lane="-10249805#1_0" slope="0.00"/>
        <vehicle id="3" x="377.72" y="185.84" angle="71.86" type="DEFAULT_VEHTYPE" speed="1.77" pos="6.87" lane="10249798#0_0" slope="0.00"/>
        <vehicle id="4" x="1319.19" y="661.56" angle="162.80" type="DEFAULT_VEHTYPE" speed="2.01" pos="7.11" lane="10249385#4_0" slope="0.00"/>
        <vehicle id="5" x="1157.57" y="538.68" angle="341.67" type="DEFAULT_VEHTYPE" speed="1.63" pos="6.73" lane="-11307594#3_0" slope="0.00"/>
        <vehicle id="6" x="976.98" y="457.94" angle="161.97" type="DEFAULT_VEHTYPE" speed="2.26" pos="7.36" lane="10249490#5_0" slope="0.00"/>
        <vehicle id="7" x="1188.94" y="431.02" angle="162.03" type="DEFAULT_VEHTYPE" speed="2.18" pos="7.28" lane="11307594#5_0" slope="0.00"/>
        <vehicle id="8" x="923.77" y="628.86" angle="162.56" type="DEFAULT_VEHTYPE" speed="1.86" pos="6.96" lane="10249490#3_0" slope="0.00"/>
        <vehicle id="9" x="706.48" y="679.07" angle="342.22" type="DEFAULT_VEHTYPE" speed="1.73" pos="6.83" lane="-41165756#1_0" slope="0.00"/>
    </timestep>
    <timestep time="3.00">
        <vehicle id="0" x="1506.49" y="76.51" angle="343.13" type="DEFAULT_VEHTYPE" speed="5.69" pos="16.22" lane="-10249385#6_0" slope="0.00"/>
        <vehicle id="1" x="1207.60" y="447.97" angle="72.10" type="DEFAULT_VEHTYPE" speed="6.17" pos="16.58" lane="10249798#4_0" slope="0.00"/>
        <vehicle id="10" x="1169.94" y="439.36" angle="252.36" type="DEFAULT_VEHTYPE" speed="4.74" pos="12.39" lane="-10249798#3_0" slope="0.00"/>
        <vehicle id="13" x="1128.08" y="628.43" angle="342.50" type="DEFAULT_VEHTYPE" speed="3.42" pos="10.41" lane="-11307594#2_0" slope="0.00"/>
        <vehicle id="14" x="1196.67" y="444.44" angle="72.10" type="DEFAULT_VEHTYPE" speed="0.00" pos="5.10" lane="10249798#4_0" slope="0.00"/>
        <vehicle id="15" x="781.05" y="499.12" angle="71.66" type="DEFAULT_VEHTYPE" speed="3.66" pos="11.04" lane="-10249819#3_0" slope="0.00"/>
        <vehicle id="16" x="1888.62" y="675.53" angle="250.94" type="DEFAULT_VEHTYPE" speed="3.41" pos="10.14" lane="-10249798#5_0" slope="0.00"/>
        <vehicle id="17" x="1183.10" y="459.79" angle="342.13" type="DEFAULT_VEHTYPE" speed="4.68" pos="12.37" lane="-11307594#4_0" slope="0.00"/>
        <vehicle id="18" x="972.24" y="485.45" angle="344.62" type="DEFAULT_VEHTYPE" speed="3.77" pos="10.70" lane="-10249490#4_0" slope="0.00"/>
        <vehicle id="19" x="761.96" y="511.61" angle="341.39" type="DEFAULT_VEHTYPE" speed="4.29" pos="11.38" lane="-41165756#3_0" slope="0.00"/>
        <vehicle id="2" x="387.90" y="188.54" angle="75.58" type="DEFAULT_VEHTYPE" speed="2.82" pos="9.38" lane="10249798#1_0" slope="0.00"/>
        <vehicle id="20" x="1341.90" y="599.35" angle="342.80" type="DEFAULT_VEHTYPE" speed="1.71" pos="6.81" lane="-10249385#4_0" slope="0.00"/>
        <vehicle id="21" x="946.26" y="568.26" angle="342.56" type="DEFAULT_VEHTYPE" speed="2.17" pos="7.27" lane="-10249490#3_0" slope="0.00"/>
        <vehicle id="24" x="1264.49" y="836.22" angle="162.09" type="DEFAULT_VEHTYPE" speed="2.07" pos="7.17" lane="10249385#2_0" slope="0.00"/>
        <vehicle id="25" x="720.68" y="669.70" angle="72.32" type="DEFAULT_VEHTYPE" speed="2.44" pos="7.54" lane="-10249903#2_0" slope="0.00"/>
        <vehicle id="27" x="1278.66" y="758.19" angle="252.02" type="DEFAULT_VEHTYPE" speed="2.26" pos="7.36" lane="10249877#1_0" slope="0.00"/>
        <vehicle id="28" x="963.63" y="468.17" angle="252.25" type="DEFAULT_VEHTYPE" speed="1.35" pos="6.45" lane="10249805#3_0" slope="0.00"/>
        <vehicle id="29" x="1171.81" y="529.48" angle="71.78" type="DEFAULT_VEHTYPE" speed="2.43" pos="7.53" lane="-10249805#1_0" slope="0.00"/>
        <vehicle id="3" x="377.91" y="185.90" angle="71.86" type="DEFAULT_VEHTYPE" speed="0.20" pos="7.07" lane="10249798#0_0" slope="0.00"/>
        <vehicle id="31" x="1509.72" y="65.87" angle="343.13" type="DEFAULT_VEHTYPE" speed="0.00" pos="5.10" lane="-10249385#6_0" slope="0.00"/>
        <vehicle id="32" x="1315.95" y="683.34" angle="343.04" type="DEFAULT_VEHTYPE" speed="0.00" pos="5.10" lane="-10249385#3_0" slope="0.00"/>
        <vehicle id="33" x="1140.97" y="614.90" angle="72.15" type="DEFAULT_VEHTYPE" speed="0.00" pos="5.10" lane="-10249819#1_0" slope="0.00"/>
        <vehicle id="34" x="911.93" y="639.16" angle="252.68" type="DEFAULT_VEHTYPE" speed="0.00" pos="5.10" lane="10249877#3_0" slope="0.00"/>
        <vehicle id="35" x="653.32" y="836.08" angle="162.64" type="DEFAULT_VEHTYPE" speed="0.00" pos="5.10" lane="41165756#0_0" slope="0.00"/>
        <vehicle id="36" x="1066.74" y="785.80" angle="251.59" type="DEFAULT_VEHTYPE" speed="0.00" pos="5.10" lane="10249903#1_0" slope="0.00"/>
        <vehicle id="37" x="920.44" y="650.43" angle="342.51" type="DEFAULT_VEHTYPE" speed="0.00" pos="5.10" lane="-10249490#2_0" slope="0.00"/>
        <vehicle id="38" x="1689.12" y="696.92" angle="252.86" type="DEFAULT_VEHTYPE" speed="0.00" pos="5.10" lane="10249805#0_0" slope="0.00"/>
        <vehicle id="4" x="1320.54" y="657.19" angle="162.80" type="DEFAULT_VEHTYPE" speed="4.57" pos="11.68" lane="10249385#4_0" slope="0.00"/>
        <vehicle id="5" x="1156.61" y="541.60" angle="341.67" type="DEFAULT_VEHTYPE" speed="3.08" pos="9.81" lane="-11307594#3_0" slope="0.00"/>
        <vehicle id="6" x="978.17" y="454.27" angle="161.97" type="DEFAULT_VEHTYPE" speed="3.86" pos="11.22" lane="10249490#5_0" slope="0.00"/>
        <vehicle id="7" x="1190.40" y="426.51" angle="162.03" type="DEFAULT_VEHTYPE" speed="4.74" pos="12.02" lane="11307594#5_0" slope="0.00"/>
        <vehicle id="8" x="924.99" y="624.97" angle="162.56" type="DEFAULT_VEHTYPE" speed="4.07" pos="11.04" lane="10249490#3_0" slope="0.00"/>
        <vehicle id="9" x="705.37" y="682.51" angle="342.22" type="DEFAULT_VEHTYPE" speed="3.62" pos="10.44" lane="-41165756#1_0" slope="0.00"/>
    </timestep>
    <timestep time="4.00">
        <vehicle id="0" x="1504.17" y="84.17" angle="343.13" type="DEFAULT_VEHTYPE" speed="8.00" pos="24.22" lane="-10249385#6_0" slope="0.00"/>
        <vehicle id="1" x="1215.24" y="450.43" angle="72.10" type="DEFAULT_VEHTYPE" speed="8.03" pos="24.62" lane="10249798#4_0" slope="0.00"/>
        <vehicle id="10" x="1163.06" y="437.17" angle="252.36" type="DEFAULT_VEHTYPE" speed="7.23" pos="19.62" lane="-10249798#3_0" slope="0.00"/>
        <vehicle id="11" x="1176.89" y="441.56" angle="252.36" type="DEFAULT_VEHTYPE" speed="0.00" pos="5.10" lane="-10249798#3_0" slope="0.00"/>
        <vehicle id="13" x="1126.50" y="633.43" angle="342.50" type="DEFAULT_VEHTYPE" speed="5.24" pos="15.66" lane="-11307594#2_0" slope="0.00"/>
        <vehicle id="14" x="1198.85" y="445.14" angle="72.10" type="DEFAULT_VEHTYPE" speed="2.29" pos="7.39" lane="10249798#4_0" slope="0.00"/>
        <vehicle id="15" x="786.10" y="500.80" angle="71.66" type="DEFAULT_VEHTYPE" speed="5.33" pos="16.36" lane="-10249819#3_0" slope="0.00"/>
        <vehicle id="16" x="1883.76" y="673.85" angle="250.94" type="DEFAULT_VEHTYPE" speed="5.14" pos="15.29" lane="-10249798#5_0" slope="0.00"/>
        <vehicle id="17" x="1181.24" y="465.56" angle="342.13" type="DEFAULT_VEHTYPE" speed="6.06" pos="18.43" lane="-11307594#4_0" slope="0.00"/>
        <vehicle id="18" x="970.83" y="490.57" angle="344.62" type="DEFAULT_VEHTYPE" speed="5.31" pos="16.01" lane="-10249490#4_0" slope="0.00"/>
        <vehicle id="19" x="759.89" y="517.76" angle="341.39" type="DEFAULT_VEHTYPE" speed="6.49" pos="17.87" lane="-41165756#3_0" slope="0.00"/>
        <vehicle id="2" x="392.92" y="189.83" angle="75.58" type="DEFAULT_VEHTYPE" speed="5.18" pos="14.56" lane="10249798#1_0" slope="0.00"/>
        <vehicle id="20" x="1340.68" y="603.28" angle="342.80" type="DEFAULT_VEHTYPE" speed="4.11" pos="10.92" lane="-10249385#4_0" slope="0.00"/>
        <vehicle id="21" x="944.84" y="572.77" angle="342.56" type="DEFAULT_VEHTYPE" speed="4.73" pos="12.00" lane="-10249490#3_0" slope="0.00"/>
        <vehicle id="22" x="1158.09" y="537.13" angle="341.67" type="DEFAULT_VEHTYPE" speed="0.00" pos="5.10" lane="-11307594#3_0" slope="0.00"/>
        <vehicle id="23" x="973.73" y="480.05" angle="344.62" type="DEFAULT_VEHTYPE" speed="0.00" pos="5.10" lane="-10249490#4_0" slope="0.00"/>
        <vehicle id="24" x="1265.56" y="832.93" angle="162.09" type="DEFAULT_VEHTYPE" speed="3.46" pos="10.62" lane="10249385#2_0" slope="0.00"/>
        <vehicle id="25" x="724.80" y="671.01" angle="72.35" type="DEFAULT_VEHTYPE" speed="4.33" pos="11.86" lane="-10249903#2_0" slope="0.00"/>
        <vehicle id="26" x="976.28" y="460.09" angle="161.97" type="DEFAULT_VEHTYPE" speed="0.00" pos="5.10" lane="10249490#5_0" slope="0.00"/>
        <vehicle id="27" x="1274.26" y="756.76" angle="252.02" type="DEFAULT_VEHTYPE" speed="4.62" pos="11.98" lane="10249877#1_0" slope="0.00"/>
        <vehicle id="28" x="959.96" y="467.00" angle="252.25" type="DEFAULT_VEHTYPE" speed="3.86" pos="10.31" lane="10249805#3_0" slope="0.00"/>
        <vehicle id="29" x="1176.25" y="530.94" angle="71.78" type="DEFAULT_VEHTYPE" speed="4.67" pos="12.20" lane="-10249805#1_0" slope="0.00"/>
        <vehicle id="3" x="379.40" y="186.35" angle="72.34" type="DEFAULT_VEHTYPE" speed="1.56" pos="0.60" lane="10249798#1_0" slope="0.00"/>
        <vehicle id="30" x="1318.60" y="663.48" angle="162.80" type="DEFAULT_VEHTYPE" speed="0.00" pos="5.10" lane="10249385#4_0" slope="0.00"/>
        <vehicle id="31" x="1509.03" y="68.15" angle="343.13" type="DEFAULT_VEHTYPE" speed="2.38" pos="7.48" lane="-10249385#6_0" slope="0.00"/>
        <vehicle id="32" x="1315.57" y="684.59" angle="343.04" type="DEFAULT_VEHTYPE" speed="1.31" pos="6.41" lane="-10249385#3_0" slope="0.00"/>
        <vehicle id="33" x="1143.03" y="615.57" angle="72.15" type="DEFAULT_VEHTYPE" speed="2.16" pos="7.26" lane="-10249819#1_0" slope="0.00"/>
        <vehicle id="34" x="910.15" y="638.61" angle="252.68" type="DEFAULT_VEHTYPE" speed="1.86" pos="6.96" lane="10249877#3_0" slope="0.00"/>
        <vehicle id="35" x="654.03" y="833.82" angle="162.64" type="DEFAULT_VEHTYPE" speed="2.37" pos="7.47" lane="41165756#0_0" slope="0.00"/>
        <vehicle id="36" x="1064.53" y="785.06" angle="251.59" type="DEFAULT_VEHTYPE" speed="2.33" pos="7.43" lane="10249903#1_0" slope="0.00"/>
        <vehicle id="37" x="919.78" y="652.53" angle="342.51" type="DEFAULT_VEHTYPE" speed="2.19" pos="7.29" lane="-10249490#2_0" slope="0.00"/>
        <vehicle id="38" x="1686.74" y="696.18" angle="252.86" type="DEFAULT_VEHTYPE" speed="2.49" pos="7.59" lane="10249805#0_0" slope="0.00"/>
        <vehicle id="4" x="1322.47" y="650.95" angle="162.80" type="DEFAULT_VEHTYPE" speed="6.53" pos="18.21" lane="10249385#4_0" slope="0.00"/>
        <vehicle id="40" x="1345.10" y="577.86" angle="162.81" type="DEFAULT_VEHTYPE" speed="0.00" pos="5.10" lane="10249385#5_0" slope="0.00"/>
        <vehicle id="41" x="737.91" y="572.72" angle="161.40" type="DEFAULT_VEHTYPE" speed="0.00" pos="5.10" lane="41165756#3_0" slope="0.00"/>
        <vehicle id="42" x="734.79" y="592.56" angle="341.83" type="DEFAULT_VEHTYPE" speed="0.00" pos="5.10" lane="-41165756#2_0" slope="0.00"/>
        <vehicle id="44" x="1660.52" y="784.47" angle="252.08" type="DEFAULT_VEHTYPE" speed="0.00" pos="5.10" lane="10249819#0_0" slope="0.00"/>
        <vehicle id="45" x="5.36" y="444.22" angle="72.79" type="DEFAULT_VEHTYPE" speed="0.00" pos="5.10" lane="-10249903#3_0" slope="0.00"/>
        <vehicle id="46" x="1001.15" y="394.34" angle="341.96" type="DEFAULT_VEHTYPE" speed="0.00" pos="5.10" lane="-10249490#5_0" slope="0.00"/>
        <vehicle id="47" x="775.41" y="497.25" angle="71.66" type="DEFAULT_VEHTYPE" speed="0.00" pos="5.10" lane="-10249819#3_0" slope="0.00"/>
        <vehicle id="48" x="1368.88" y="512.14" angle="342.81" type="DEFAULT_VEHTYPE" speed="0.00" pos="5.10" lane="-10249385#5_0" slope="0.00"/>
        <vehicle id="49" x="766.94" y="485.84" angle="162.56" type="DEFAULT_VEHTYPE" speed="0.00" pos="5.10" lane="41165756#4_0" slope="0.00"/>
        <vehicle id="5" x="1155.10" y="546.14" angle="341.67" type="DEFAULT_VEHTYPE" speed="4.78" pos="14.59" lane="-11307594#3_0" slope="0.00"/>
        <vehicle id="6" x="980.10" y="448.33" angle="161.97" type="DEFAULT_VEHTYPE" speed="6.24" pos="17.46" lane="10249490#5_0" slope="0.00"/>
        <vehicle id="7" x="1192.41" y="420.32" angle="162.03" type="DEFAULT_VEHTYPE" speed="6.51" pos="18.53" lane="11307594#5_0" slope="0.00"/>
        <vehicle id="8" x="926.76" y="619.33" angle="162.56" type="DEFAULT_VEHTYPE" speed="5.92" pos="16.95" lane="10249490#3_0" slope="0.00"/>
        <vehicle id="9" x="703.85" y="687.25" angle="342.22" type="DEFAULT_VEHTYPE" speed="4.97" pos="15.41" lane="-41165756#1_0" slope="0.00"/>
    </timestep>
    <timestep time="5.00">
        <vehicle id="0" x="1501.11" y="94.26" angle="343.13" type="DEFAULT_VEHTYPE" speed="10.54" pos="34.76" lane="-10249385#6_0" slope="0.00"/>
        <vehicle id="1" x="1224.47" y="453.41" angle="72.10" type="DEFAULT_VEHTYPE" speed="9.69" pos="34.31" lane="10249798#4_0" slope="0.00"/>
        <vehicle id="10" x="1154.53" y="434.46" angle="252.36" type="DEFAULT_VEHTYPE" speed="8.95" pos="28.56" lane="-10249798#3_0" slope="0.00"/>
        <vehicle id="11" x="1174.94" y="440.94" angle="252.36" type="DEFAULT_VEHTYPE" speed="2.05" pos="7.15" lane="-10249798#3_0" slope="0.00"/>
        <vehicle id="13" x="1124.47" y="639.89" angle="342.50" type="DEFAULT_VEHTYPE" speed="6.77" pos="22.43" lane="-11307594#2_0" slope="0.00"/>
        <vehicle id="14" x="1203.06" y="446.50" angle="72.10" type="DEFAULT_VEHTYPE" speed="4.43" pos="11.81" lane="10249798#4_0" slope="0.00"/>
        <vehicle id="15" x="793.15" y="503.13" angle="71.66" type="DEFAULT_VEHTYPE" speed="7.42" pos="23.78" lane="-10249819#3_0" slope="0.00"/>
        <vehicle id="16" x="1877.20" y="671.58" angle="250.94" type="DEFAULT_VEHTYPE" speed="6.94" pos="22.23" lane="-10249798#5_0" slope="0.00"/>
        <vehicle id="17" x="1178.73" y="473.35" angle="342.13" type="DEFAULT_VEHTYPE" speed="8.19" pos="26.62" lane="-11307594#4_0" slope="0.00"/>
        <vehicle id="18" x="968.84" y="497.83" angle="344.62" type="DEFAULT_VEHTYPE" speed="7.53" pos="23.54" lane="-10249490#4_0" slope="0.00"/>
        <vehicle id="19" x="757.00" y="526.34" angle="341.39" type="DEFAULT_VEHTYPE" speed="9.06" pos="26.92" lane="-41165756#3_0" slope="0.00"/>
        <vehicle id="2" x="399.84" y="191.60" angle="75.58" type="DEFAULT_VEHTYPE" speed="7.14" pos="21.70" lane="10249798#1_0" slope="0.00"/>
        <vehicle id="20" x="1338.87" y="609.13" angle="342.80" type="DEFAULT_VEHTYPE" speed="6.12" pos="17.04" lane="-10249385#4_0" slope="0.00"/>
        <vehicle id="21" x="942.99" y="578.68" angle="342.56" type="DEFAULT_VEHTYPE" speed="6.20" pos="18.20" lane="-10249490#3_0" slope="0.00"/>
        <vehicle id="22" x="1157.52" y="538.83" angle="341.67" type="DEFAULT_VEHTYPE" speed="1.79" pos="6.89" lane="-11307594#3_0" slope="0.00"/>
        <vehicle id="23" x="973.11" y="482.29" angle="344.62" type="DEFAULT_VEHTYPE" speed="2.32" pos="7.42" lane="-10249490#4_0" slope="0.00"/>
        <vehicle id="24" x="1267.30" y="827.53" angle="162.09" type="DEFAULT_VEHTYPE" speed="5.67" pos="16.30" lane="10249385#2_0" slope="0.00"/>
        <vehicle id="25" x="730.20" y="672.73" angle="72.35" type="DEFAULT_VEHTYPE" speed="5.66" pos="17.53" lane="-10249903#2_0" slope="0.00"/>
        <vehicle id="26" x="976.71" y="458.76" angle="161.97" type="DEFAULT_VEHTYPE" speed="1.40" pos="6.50" lane="10249490#5_0" slope="0.00"/>
        <vehicle id="27" x="1267.82" y="754.67" angle="252.02" type="DEFAULT_VEHTYPE" speed="6.78" pos="18.76" lane="10249877#1_0" slope="0.00"/>
        <vehicle id="28" x="954.31" y="465.19" angle="252.25" type="DEFAULT_VEHTYPE" speed="5.92" pos="16.23" lane="10249805#3_0" slope="0.00"/>
        <vehicle id="29" x="1182.45" y="532.98" angle="71.78" type="DEFAULT_VEHTYPE" speed="6.52" pos="18.72" lane="-10249805#1_0" slope="0.00"/>
        <vehicle id="3" x="382.89" y="187.25" angle="75.02" type="DEFAULT_VEHTYPE" speed="3.61" pos="4.21" lane="10249798#1_0" slope="0.00"/>
        <vehicle id="30" x="1319.33" y="661.12" angle="162.80" type="DEFAULT_VEHTYPE" speed="2.46" pos="7.56" lane="10249385#4_0" slope="0.00"/>
        <vehicle id="31" x="1507.61" y="72.82" angle="343.13" type="DEFAULT_VEHTYPE" speed="4.88" pos="12.36" lane="-10249385#6_0" slope="0.00"/>
        <vehicle id="32" x="1314.70" y="687.46" angle="343.04" type="DEFAULT_VEHTYPE" speed="3.00" pos="9.41" lane="-10249385#3_0" slope="0.00"/>
        <vehicle id="33" x="1146.98" y="616.84" angle="72.15" type="DEFAULT_VEHTYPE" speed="4.15" pos="11.41" lane="-10249819#1_0" slope="0.00"/>
        <vehicle id="34" x="906.86" y="637.58" angle="252.68" type="DEFAULT_VEHTYPE" speed="3.45" pos="10.41" lane="10249877#3_0" slope="0.00"/>
        <vehicle id="35" x="655.23" y="829.97" angle="162.64" type="DEFAULT_VEHTYPE" speed="4.04" pos="11.50" lane="41165756#0_0" slope="0.00"/>
        <vehicle id="36" x="1060.20" y="783.62" angle="251.59" type="DEFAULT_VEHTYPE" speed="4.57" pos="12.00" lane="10249903#1_0" slope="0.00"/>
        <vehicle id="37" x="918.38" y="656.97" angle="342.51" type="DEFAULT_VEHTYPE" speed="4.66" pos="11.95" lane="-10249490#2_0" slope="0.00"/>
        <vehicle id="38" x="1682.70" y="694.94" angle="252.86" type="DEFAULT_VEHTYPE" speed="4.23" pos="11.82" lane="10249805#0_0" slope="0.00"/>
        <vehicle id="4" x="1325.06" y="642.61" angle="162.80" type="DEFAULT_VEHTYPE" speed="8.74" pos="26.95" lane="10249385#4_0" slope="0.00"/>
        <vehicle id="40" x="1345.72" y="575.84" angle="162.81" type="DEFAULT_VEHTYPE" speed="2.12" pos="7.22" lane="10249385#5_0" slope="0.00"/>
        <vehicle id="41" x="738.72" y="570.30" angle="161.40" type="DEFAULT_VEHTYPE" speed="2.54" pos="7.64" lane="41165756#3_0" slope="0.00"/>
        <vehicle id="42" x="734.34" y="593.94" angle="341.83" type="DEFAULT_VEHTYPE" speed="1.45" pos="6.55" lane="-41165756#2_0" slope="0.00"/>
        <vehicle id="43" x="718.36" y="668.96" angle="72.29" type="DEFAULT_VEHTYPE" speed="0.00" pos="5.10" lane="-10249903#2_0" slope="0.00"/>
        <vehicle id="44" x="1658.64" y="783.86" angle="252.08" type="DEFAULT_VEHTYPE" speed="1.98" pos="7.08" lane="10249819#0_0" slope="0.00"/>
        <vehicle id="45" x="7.67" y="444.93" angle="72.79" type="DEFAULT_VEHTYPE" speed="2.42" pos="7.52" lane="-10249903#3_0" slope="0.00"/>
        <vehicle id="46" x="1000.63" y="395.93" angle="341.96" type="DEFAULT_VEHTYPE" speed="1.67" pos="6.77" lane="-10249490#5_0" slope="0.00"/>
        <vehicle id="47" x="777.25" y="497.86" angle="71.66" type="DEFAULT_VEHTYPE" speed="1.93" pos="7.03" lane="-10249819#3_0" slope="0.00"/>
        <vehicle id="48" x="1368.16" y="514.47" angle="342.81" type="DEFAULT_VEHTYPE" speed="2.44" pos="7.54" lane="-10249385#5_0" slope="0.00"/>
        <vehicle id="49" x="767.57" y="483.85" angle="162.56" type="DEFAULT_VEHTYPE" speed="2.09" pos="7.19" lane="41165756#4_0" slope="0.00"/>
        <vehicle id="5" x="1153.02" y="552.42" angle="341.67" type="DEFAULT_VEHTYPE" speed="6.62" pos="21.20" lane="-11307594#3_0" slope="0.00"/>
        <vehicle id="50" x="275.50" y="338.42" angle="71.97" type="DEFAULT_VEHTYPE" speed="0.00" pos="5.10" lane="-10249819#4_0" slope="0.00"/>
        <vehicle id="52" x="1185.33" y="452.87" angle="342.13" type="DEFAULT_VEHTYPE" speed="0.00" pos="5.10" lane="-11307594#4_0" slope="0.00"/>
        <vehicle id="53" x="1263.86" y="838.19" angle="162.09" type="DEFAULT_VEHTYPE" speed="0.00" pos="5.10" lane="10249385#2_0" slope="0.00"/>
        <vehicle id="54" x="992.73" y="383.01" angle="252.31" type="DEFAULT_VEHTYPE" speed="0.00" pos="5.10" lane="-10249798#2_0" slope="0.00"/>
        <vehicle id="55" x="817.78" y="335.80" angle="342.39" type="DEFAULT_VEHTYPE" speed="0.00" pos="5.10" lane="-41165756#5_0" slope="0.00"/>
        <vehicle id="56" x="707.00" y="677.43" angle="342.22" type="DEFAULT_VEHTYPE" speed="0.00" pos="5.10" lane="-41165756#1_0" slope="0.00"/>
        <vehicle id="57" x="1093.97" y="698.22" angle="251.99" type="DEFAULT_VEHTYPE" speed="0.00" pos="5.10" lane="10249877#2_0" slope="0.00"/>
        <vehicle id="6" x="982.59" y="440.70" angle="161.97" type="DEFAULT_VEHTYPE" speed="8.03" pos="25.49" lane="10249490#5_0" slope="0.00"/>
        <vehicle id="7" x="1194.93" y="412.54" angle="162.03" type="DEFAULT_VEHTYPE" speed="8.18" pos="26.72" lane="11307594#5_0" slope="0.00"/>
        <vehicle id="8" x="928.97" y="612.29" angle="162.56" type="DEFAULT_VEHTYPE" speed="7.38" pos="24.33" lane="10249490#3_0" slope="0.00"/>
        <vehicle id="9" x="701.93" y="693.24" angle="342.22" type="DEFAULT_VEHTYPE" speed="6.30" pos="21.71" lane="-41165756#1_0" slope="0.00"/>
    </timestep>
    <timestep time="6.00">
        <vehicle id="0" x="1497.55" y="105.99" angle="343.13" type="DEFAULT_VEHTYPE" speed="12.26" pos="47.03" lane="-10249385#6_0" slope="0.00"/>
        <vehicle id="1" x="1235.12" y="456.85" angle="72.10" type="DEFAULT_VEHTYPE" speed="11.19" pos="45.50" lane="10249798#4_0" slope="0.00"/>
        <vehicle id="10" x="1144.35" y="431.22" angle="252.36" type="DEFAULT_VEHTYPE" speed="10.68" pos="39.25" lane="-10249798#3_0" slope="0.00"/>
        <vehicle id="11" x="1171.04" y="439.70" angle="252.36" type="DEFAULT_VEHTYPE" speed="4.09" pos="11.24" lane="-10249798#3_0" slope="0.00"/>
        <vehicle id="13" x="1121.92" y="647.98" angle="342.50" type="DEFAULT_VEHTYPE" speed="8.49" pos="30.91" lane="-11307594#2_0" slope="0.00"/>
        <vehicle id="14" x="1209.56" y="448.60" angle="72.10" type="DEFAULT_VEHTYPE" speed="6.83" pos="18.64" lane="10249798#4_0" slope="0.00"/>
        <vehicle id="15" x="802.32" y="506.17" angle="71.66" type="DEFAULT_VEHTYPE" speed="9.66" pos="33.44" lane="-10249819#3_0" slope="0.00"/>
        <vehicle id="16" x="1868.91" y="668.71" angle="250.94" type="DEFAULT_VEHTYPE" speed="8.78" pos="31.00" lane="-10249798#5_0" slope="0.00"/>
        <vehicle id="17" x="1175.46" y="483.49" angle="342.13" type="DEFAULT_VEHTYPE" speed="10.65" pos="37.27" lane="-11307594#4_0" slope="0.00"/>
        <vehicle id="18" x="966.11" y="506.36" angle="342.15" type="DEFAULT_VEHTYPE" speed="8.96" pos="32.50" lane="-10249490#4_0" slope="0.00"/>
        <vehicle id="19" x="753.67" y="536.22" angle="341.39" type="DEFAULT_VEHTYPE" speed="10.43" pos="37.35" lane="-41165756#3_0" slope="0.00"/>
        <vehicle id="2" x="408.13" y="193.74" angle="75.58" type="DEFAULT_VEHTYPE" speed="8.56" pos="30.26" lane="10249798#1_0" slope="0.00"/>
        <vehicle id="20" x="1336.60" y="616.46" angle="342.80" type="DEFAULT_VEHTYPE" speed="7.68" pos="24.72" lane="-10249385#4_0" slope="0.00"/>
        <vehicle id="21" x="940.53" y="586.49" angle="342.56" type="DEFAULT_VEHTYPE" speed="8.19" pos="26.39" lane="-10249490#3_0" slope="0.00"/>
        <vehicle id="22" x="1156.38" y="542.29" angle="341.67" type="DEFAULT_VEHTYPE" speed="3.65" pos="10.54" lane="-11307594#3_0" slope="0.00"/>
        <vehicle id="23" x="971.92" y="486.60" angle="344.62" type="DEFAULT_VEHTYPE" speed="4.48" pos="11.90" lane="-10249490#4_0" slope="0.00"/>
        <vehicle id="24" x="1269.48" y="820.80" angle="162.09" type="DEFAULT_VEHTYPE" speed="7.08" pos="23.38" lane="10249385#2_0" slope="0.00"/>
        <vehicle id="25" x="738.07" y="675.24" angle="72.35" type="DEFAULT_VEHTYPE" speed="8.26" pos="25.79" lane="-10249903#2_0" slope="0.00"/>
        <vehicle id="26" x="977.75" y="455.56" angle="161.97" type="DEFAULT_VEHTYPE" speed="3.37" pos="9.87" lane="10249490#5_0" slope="0.00"/>